formula,formation energy,Mpid,SpaceGroup
Sc(H2PO4)3,-2.29,mp-696457,R3c
Mg2Mo3O8,-2.29,mp-19139,P63mc
Rb2TbO3,-2.29,mp-13735,Cmc2_1
Rb2PuCl6,-2.29,mp-29336,P63mc
LiSc(Mo3O8),-2.3,mp-19433,P3m1
KLi(SO4),-2.31,mp-6800,P31c
Na15(SO4)5F4Cl,-2.34,mp-554285,P31m
Ba3CuSb2O9,-2.34,mp-17145,P63mc
Na(V2O5),-2.34,mp-1180149,Pmn2_1
Na21(SO4)7F6Cl,-2.36,mp-680169,P31m
Cs3(Mo5P7O24),-2.36,mp-572886,P31c
KSn4(PO4)3,-2.37,mp-6755,R3c
LiY(Mo3O8),-2.38,mp-19431,P3m1
Pb(V6O11),-2.39,mp-619128,P6₃mc
V6O13,-2.39,mp-1196958,P1c1
Mn2(PO4)Cl,-2.4,mp-558402,Pna2_1
K3(V5O14),-2.41,mp-27704,P31m
Ba3NiSb2O9,-2.41,mp-18611,P63mc
Na(V2O5),-2.41,mp-760908,Pnma
Mn6(PO4)4(H2O),-2.41,mp-859125,C1C1
P2O5,-2.43,mp-2173,Pnma
Ga3PO7,-2.43,mp-3107,R3m
Zn2(VO)(PO4)2,-2.44,mp-556898,I4cm
Rb2(VO)(V2O7),-2.45,mp-510519,P4bm
K2V3O8,-2.45,mp-16787,P4bm
Cs3(Mo5P6O25),-2.46,mp-560938,P31c
CaHClO,-2.46,mp-642725,P63mc
Cd2(Nb2O7),-2.47,mp-560530,Ima2
BaYFeCuO5,-2.47,mp-505589,P4mm
BaMnO3,-2.48,mp-19267,P6₃cm
Na2Al2Si3O10(H2O)3,-2.48,mp-1199031,C1C1
LuBaCuFeO5,-2.49,mp-611378,P4mm
Zn(PO3)2,-2.49,mp-558930,C1c1
VPO5,-2.5,mp-1046704,C1c1
PO(OPF2)3,-2.51,mp-565711,P3c1
Fe3(ClB7O13),-2.52,mp-556300,R3c
Ag2(Nb4O11),-2.53,mp-984755,R3c
In(PO3)3,-2.55,mp-14535,C1c1
Ba5Re3NO18,-2.56,mp-555095,P6₃cm
La4NS3Cl3,-2.56,mp-559256,P6₃mc
Zn3(B7O13)Cl,-2.57,mp-23609,R3c
Ba(MoO)2O(P2O7)(PO4),-2.57,mp-555195,C1c1
Mg3(Si2O5)(OH)4,-2.59,mp-24097,P6₃cm
Mg(VO3),-2.59,mp-1079330,Cmc2_1
Sr(V6O11),-2.59,mp-16974,P6₃mc
Mg3Si2O5(OH)4,-2.59,mp-24097,P6₃mc
LiKZn(P2O7),-2.6,mp-554164,Pmc2_1
Na2(VP2O8),-2.6,mp-19329,P4bm
K2Zn(PO3)4,-2.6,mp-1019791,C1c1
Al2Si2O5(OH)4,-2.61,mp-1198588,C1c1
LiKZn(P2O7),-2.61,mp-554164,Pmc2_1
Al2(Si2O5(OH)4),-2.61,mp-721216,C1c1
KBa3Ca4Cu3V7O28,-2.62,mp-557801,P6₃mc
Ca(Al2Si3O10)(H2O)3,-2.63,mp-707746,C1c1
Gd2(MoO4)3,-2.64,mp-3572,Pba2
Sr18Ca3Cr14O56,-2.65,mp-1219532,R3
VOPO4,-2.65,mp-25265,Pnma
La4Cu3MoO12,-2.68,mp-1203941,P1m1
NaSc(HPO4)2,-2.68,mp-779682,C1C1
Zr(HPO4)2,-2.69,mp-707540,I4₁cd
Na3La(VO4)2,-2.69,mp-558512,Pca2_1
TlNbB2O6,-2.69,mp-559057,Pna2_1
Ca3(AsO4)2,-2.7,mp-530449,R3
U(TeO5),-2.7,mp-1193709,Pca2_1
NaBe4SbO7,-2.71,mp-8075,P6₃mc
Na2(NiFeF7),-2.71,mp-561395,Imm2
Pb(TiO3),-2.73,mp-20459,P4mm
Ba2(CrO4),-2.73,mp-561426,Pna2_1
Pb(Nb2O6),-2.74,mp-1221063,P1m1
LiFe2F6,-2.76,mp-557403,P4₂nm
ScBiO3,-2.78,mp-756205,Pnma
BaCs4(PO3)6,-2.78,mp-560944,P31c
Ba5Li2(WO5)3,-2.78,mp-557816,P6₃mc
Ba5Re3ClO15,-2.79,mp-556647,P6₃mc
K2(FeF5),-2.8,mp-554621,Pna2_1
Li2(B4O7),-2.81,mp-4779,I4₁cd
Li(B3O5),-2.81,mp-3660,Pna2_1
Cs2Mg2(P6O18),-2.81,mp-1229321,P1c1
Pb5Ga3F19,-2.82,mp-556117,I4cm
NdBaCuO2(BO3),-2.84,mp-10350,P4bm
Na(NbO3),-2.84,mp-4514,R3c
KMn2Zn3(Si2O5)6,-2.84,mp-704116,P6cc
Sr4(Ga2O7),-2.85,mp-1204230,P1c1
LaBaCuO2(BO3),-2.86,mp-14970,P4bm
K(NbO3),-2.86,mp-4342,P4mm
BaCuSi2O6,-2.87,mp-1197716,I4₁cd
K3(B2Nb3O12),-2.88,mp-558828,P31m
Li2(SiO3),-2.88,mp-5012,Cmc2_1
NaFe3B3Al6Si6O27(OH)3F,-2.89,mp-863003,R3m
Sr3Ce(PO4)(CO3)3,-2.89,mp-561145,R3m
Tm(FeO3),-2.89,mp-558400,P6₃cm
K2(MnF6),-2.89,mp-560127,P6₃mc
KBePO4,-2.89,mp-7324,Pna2_1
Li(NbO3),-2.9,mp-3731,R3c
Rb2MnF6,-2.9,mp-558133,P6₃mc
Ca4Cl6O,-2.9,mp-23326,P6₃mc
Mg2(PO4)Cl,-2.9,mp-555396,Pna2_1
Na2(Nb4O11),-2.91,mp-1202153,C1c1
Mn(TiO3),-2.92,mp-19376,R3c
Ce3OCl(AsO3)2,-2.93,mp-1200622,P4₂nm
La8Ru4O21,-2.95,mp-559854,P6₃cm
Ca(PO3)2,-2.96,mp-561008,C1c1
Sc(PO3)3,-2.97,mp-556281,C1c1
YInO3,-2.98,mp-504607,P6₃cm
Sc(MnO3),-2.98,mp-18954,P6₃cm
Rb2(Be2Si2O7),-2.98,mp-557027,Pnn2
Ba4Cl6O,-2.99,mp-23063,P6₃mc
KNa2LiFe2Ti2(SiO3)8,-3,mp-510635,C1c1
Y(PO3)3,-3.01,mp-1020797,C1c1
Dy(PO3)3,-3.01,mp-557730,C1c1
Lu(PO3)3,-3.03,mp-557040,C1c1
Ta3O6N,-3.03,mp-1193678,C1m1
Rb2GeF6,-3.04,mp-13954,P6₃mc
K2GeF6,-3.04,mp-7825,P3m1
Y(MnO3),-3.04,mp-19385,P6₃cm
Ho(MnO3),-3.07,mp-19056,P6₃cm
Ba2Mn(Si2O7)Cl,-3.08,mp-558848,P4bm
Er(MnO3),-3.08,mp-19217,P6₃cm
La(GaO3),-3.09,mp-1078871,R3c
Ba(B2O4),-3.1,mp-5730,R3c
BeO,-3.1,mp-2542,P6₃mc
Tm(MnO3),-3.1,mp-554211,P6₃cm
K2(NbO)2(Si4O12),-3.11,mp-560407,P4bm
LiCa(PO4),-3.11,mp-16804,P31c
LuMnO3,-3.11,mp-18808,P6₃cm
Al(PO4),-3.11,mp-545974,P6₃cm
Lu(MnO3),-3.11,mp-18808,P6₃cm
Ba2Na(Nb5O15),-3.12,mp-15983,P4bm
LaCaGaO4,-3.12,mp-1227061,I4mm
Na4Zr2(SiO4)3,-3.12,mp-555472,R3c
Zr4O5N2,-3.13,mp-758272,I4cm
Li(TaO3),-3.13,mp-3666,R3c
LiMn(VF6),-3.14,mp-1188440,P4₂nm
YGaO3,-3.14,mp-17853,P6₃cm
Ca9Fe(PO4)7,-3.17,mp-554104,R3c
KAl(SiO4),-3.19,mp-9480,P31c
Rb(AlSiO4),-3.19,mp-6434,Pna2_1
Rb2(TiSi6O15),-3.19,mp-18582,C1c1
K2(TiSi6O15),-3.19,mp-17617,C1c1
Pb5(AlF6)3F,-3.21,mp-541732,I4cm
Ba2(VO)(Si2O7),-3.21,mp-19179,P4bm
Ba4LiNb3O12,-3.21,mp-18274,P6₃mc
Ba3(BO3)(PO4),-3.21,mp-554479,P6₃mc
Ca9In(PO4)7,-3.23,mp-555661,R3c
Ba6(Ti2Nb8O30),-3.27,mp-1228388,P1c1
Ba3Sc(BO3)3,-3.28,mp-14972,P6₃mc
Sr2(Nb2O7),-3.3,mp-15590,Pna2_1
Ba3Y(BO3)3,-3.3,mp-6310,P6₃cm
Ca2(Nb2O7),-3.3,mp-560040,Pna2_1
Ba3Ho(BO3)3,-3.31,mp-14384,P6₃cm
BaMg(BO3)F,-3.32,mp-1198065,C1c1
MgBeAl4O8,-3.32,mp-554364,P6₃mc
Ba3Tm(BO3)3,-3.32,mp-14385,P6₃cm
Ba3Lu(BO3)3,-3.32,mp-14386,P6₃cm
BaMg(BO3)F,-3.32,mp-1198065,C1C1
LiUO3,-3.35,mp-8007,R3c
Mg3BeAl8O16,-3.35,mp-554018,P6₃mc
Rb5(Nb3OF18),-3.37,mp-540995,I4cm
Ba4LiTa3O12,-3.37,mp-16792,P6₃mc
Er2Sr3(BO3)4,-3.37,mp-13960,Pna2_1
LaCa4O(BO3)3,-3.38,mp-6076,C1m1
Ca3(SiO4)O,-3.38,mp-37657,P6₃mc
Sr2(TiO)(Si2O7),-3.43,mp-1192641,P4bm
Ca3La3(BO3)5,-3.43,mp-6709,P6₃mc
K2(SiF6),-3.43,mp-13002,P6₃mc
Ba2(TiO)(Si2O7),-3.44,mp-6081,P4bm
K2Li(AlF6),-3.47,mp-556996,P3M1
Ba(TiO3),-3.49,mp-5020,R3m
Ba3Sr4(BO3)3F5,-3.51,mp-1182538,P6₃mc
UOF4,-3.66,mp-559734,R3m
CsTi8F33,-3.7,mp-1197107,P31c
UF3,-3.74,mp-18299,P6₃cm
Sr(HfO3),-3.78,mp-3378,Pnma
La2(Ti2O7),-3.78,mp-12192,Pna2_1
PrZr3F15,-4.11,mp-28781,R3m
LaF3,-4.49,mp-334,P6₃cm
CdInGaS4,-2.201,mp-630773,P3m1
H2SO4(H2O)8,-1.35,mp-31373,C1C1
NaAg(S2O3)(H2O),-1.36,mp-1196131,P1c1
(C(NH2)3)Al(SO4)2(H2O)6,-1.36,mp-721813,P31m
CdO,-1.36,mp-13119,P6₃mc
K2H(IO3)2Cl,-1.36,mp-733853,Pca2_1
BN,-1.37,mp-2653,P6₃mc
Cu(SO4)(H2O)3,-1.38,mp-707170,C1C1
Rb(IO3),-1.38,mp-27193,R3m
TaS2,-1.38,mp-10014,R3m
K(IO3),-1.38,mp-552729,R3m
Rb2Nd(NO3)5(H2O)4,-1.39,mp-1205029,C1c1
Rb2Pr(NO3)5(H2O)4,-1.39,mp-1202266,C1c1
In2(Se2O5)3,-1.39,mp-30325,P1c1
Cs6Fe2O5,-1.4,mp-1105876,C1m1
Na2(CO3)(H2O)10,-1.4,mp-699482,C1c1
ZrN,-1.41,mp-13126,P6₃mc
Cd(OH)Cl,-1.42,mp-644222,P6₃mc
CrO(OH)(H2O)2,-1.43,mp-1226463,P1m1
K(NO3),-1.43,mp-6920,R3m
EuY(Si4N7),-1.43,mp-22517,P6₃mc
((Nb3SBr3)Br4),-1.44,mp-29057,P3m1
BaY(Si4N7),-1.44,mp-11670,P6₃mc
Ce3(Si6N11),-1.45,mp-541712,P4bm
SrY(Si4N7),-1.45,mp-6606,P6₃mc
Ga2(SeO3)3(H2O)3,-1.46,mp-542464,R3c
(Mg(H2O)6)2(MnCl6),-1.46,mp-729389,P31c
CsCuCl3,-1.46,mp-567366,P6₃mc
NaYI4O12,-1.46,mp-581868,C1c1
Bi(CoO3),-1.47,mp-545522,P4mm
NH4(F(HF)3),-1.47,mp-28123,R3c
TbSe,-1.47,mp-10645,P6₃mc
Cu3(OH)2(V2O7)(H2O)2,-1.48,mp-1204591,C1c1
Pr3(Si6N11),-1.48,mp-16929,P4bm
In2Cu2O5,-1.48,mp-21617,Pna2_1
Pr(BN2),-1.49,mp-9028,R3c
ZnO,-1.49,mp-2133,P6₃mc
LiNiO2,-1.5,mp-25411,R3m
Sm3(Si6N11),-1.5,mp-16995,P4bm
Cs(GeBr3),-1.5,mp-642739,C1m1
PdF4,-1.5,mp-663300,C1c1
LaN,-1.5,mp-567290,P6₃mc
La(IO3)3,-1.51,mp-566599,C1c1
NaK(TeO3)(H2O)3,-1.51,mp-1192905,P31c
SmSe,-1.51,mp-10643,P6₃mc
DySe,-1.51,mp-7132,P6₃mc
CsLi3I4,-1.51,mp-1184020,P1m1
Rb4(CO4),-1.51,mp-551267,C1m1
(NH4)2(VO)(V2O7),-1.52,mp-765962,P4bm
RbTiS2,-1.52,mp-16318,R3m
Hg4OF6,-1.52,mp-31132,P6₃mc
NaZn(OH)3,-1.53,mp-695960,P4₂bc
CuScS2,-1.53,mp-6980,P3m1
KNiCl3,-1.53,mp-27366,P6₃cm
Na2(HPO3)(H2O)5,-1.54,mp-720570,Pmn2_1
FeO(OH),-1.54,mp-510670,Pmn2_1
Cs2PbO3,-1.54,mp-21521,Cmc2_1
Rb4(CO4),-1.55,mp-551437,C1m1
SrK(AsO4)(H2O)8,-1.55,mp-703559,I4₁md
Al2(SeO3)3(H2O)6,-1.55,mp-740731,P31c
Na6ZnO4,-1.55,mp-7664,P6₃mc
Rb2(PbO3),-1.55,mp-21489,Cmc2_1
Na4(CO4),-1.56,mp-645295,C1m1
ZnCl2,-1.56,mp-22889,Pna2_1
Na2MnO4,-1.57,mp-28186,P6₃mc
Li3VO4(H2O)8,-1.58,mp-1198234,P1c1
AlN,-1.58,mp-661,P6₃mc
RbMnBr3,-1.58,mp-568231,P6₃cm
POCl3,-1.58,mp-27277,Pna2_1
K6MgO4,-1.59,mp-12171,P6₃mc
La2Fe2S5,-1.59,mp-2995,Cmc2_1
RbVBr3,-1.6,mp-29314,P6₃cm
(NH4)(BAsO4F),-1.61,mp-1191775,C1c1
Cu2Pb5(SO4)3CO3(OH)6,-1.62,mp-1202476,Pmn2_1
(NH4)2(VO)(P2O7),-1.63,mp-765665,P4bm
K17Fe5O16,-1.63,mp-558482,C1m1
K4(CO4),-1.64,mp-605843,C1m1
Te2O3(SO4),-1.64,mp-4906,Pmn2_1
Bi(FeO3),-1.65,mp-1069079,P4mm
Er6(Si11N20O),-1.65,mp-1225896,P31c
Co2Mo3O8,-1.66,mp-17824,P6₃mc
Na3Li(MoO4)2(H2O)6,-1.67,mp-735483,R3c
InBaCo4O7,-1.67,mp-22402,P6₃mc
Ba(VS3),-1.67,mp-3451,Cmc2_1
BiFeO3,-1.68,mp-23501,R3c
Fe2Mo3O8,-1.68,mp-504974,P6₃mc
Ba(FeO3),-1.69,mp-705845,R3m
Co2Mn3O8,-1.69,mp-504423,Pmn2_1
Cs(GeCl3),-1.71,mp-22988,R3m
Mn(NH4)Na(P2O7)(H2O)3,-1.72,mp-757398,C1c1
Mn2Mo3O8,-1.74,mp-504503,P6₃mc
CsCrCl3,-1.75,mp-610955,P6₃mc
K2Cr4O13,-1.76,mp-542693,P1c1
Cs(HSO3),-1.76,mp-1018678,R3m
PbFe3(SO4)(PO4)(OH)6,-1.76,mp-735523,R3m
K2(CoCl4),-1.76,mp-23515,Pna2_1
PtGeSe,-1.76,mp-20817,Pna2_1
CuReO4,-1.77,mp-645206,C1c1
Li(N2H5)(BeF4),-1.77,mp-721303,Pna2_1
Ba3CrS5,-1.78,mp-30903,P6₃mc
(H3O)2V3O8,-1.79,mp-627291,P1c1
Cu2(V2O7),-1.8,mp-505508,Fdd2
CsAl(H2AsO4)2(HAsO4),-1.81,mp-1201174,C1c1
Sb6O7(SO4)2,-1.81,mp-27229,Ccc2
BiMnO3,-1.81,mp-1106239,C1c1
BaNiO3,-1.82,mp-19241,P6₃mc
Sb(SbO4),-1.84,mp-704327,Pnma
Pb3Mn7O15,-1.84,mp-704327,Pnma
CsMnCl3,-1.86,mp-23336,R3m
Zn2Mo3O8,-1.86,mp-19216,P6₃mc
(V(H2O)3F3),-1.89,mp-1187773,R3m
(UO2SO4)2(H2O)7,-1.9,mp-706594,Pca2_1
Na(H2PO4)(H2O),-1.91,mp-554288,Pca2_1
LiInMo3O8,-1.92,mp-22805,P3m1
Sb2Mo10O31,-1.92,mp-608522,Pma2
Li2Fe3SbO8,-1.93,mp-771712,P6₃mc
Li8CoO6,-1.94,mp-27920,P6₃mc
Mo17O47,-1.94,mp-285,Pba2
Bi(Mn7O12),-1.94,mp-1188529,C1m1
PbCo2(V2O8),-1.95,mp-1203643,I4₁cd
BaTiS3,-1.95,mp-7073,P6₃/mmc
Sn6O4(SiO4),-1.95,mp-556100,P6₃mc
(AlPO4)3((CH3)2CONH)(H2O),-1.95,mp-699455,C1c1
Li(H2PO3),-1.96,mp-23931,Pna2_1
Rb(HSO4),-1.96,mp-1197989,P1c1
CrO(OH),-1.97,mp-24040,Pmn2_1
RbCS(OF)3,-2,mp-672209,C1m1
Fe3(PO4)O3,-2,mp-18775,R3m
Na2In2(Mo3O8)(MoO4)2,-2,mp-1221585,P3m1
K2(ZnCl4),-2,mp-647575,Pna2_1
RbSO3CF3,-2,mp-672209,C1m1
Er3GaS6,-2.02,mp-7290,Cmc2_1
Li4(CO4),-2.04,mp-555320,Cmc2_1
ZrCl2,-2.05,mp-23162,R3m
YBaCo4O7,-2.05,mp-19151,P6₃mc
Tl4Ni7(PO4)6,-2.05,mp-560035,C1m1
HoBaCo4O7,-2.06,mp-17703,P6₃mc
Cd4BiO(BO3)3,-2.07,mp-1189868,C1m1
Fe2BO4,-2.07,mp-566717,P1c1
CdCl2KClRb3Cl3,-2.07,mp-570158,R3c
DyBaCo4O7,-2.07,mp-18804,P6₃mc
Fe2O(BO3),-2.07,mp-566717,P1c1
LuBaCo4O7,-2.08,mp-16868,P6₃mc
Cs2(S2O6),-2.08,mp-561681,P6₃mc
Ca(HPO4)(H2O)2,-2.08,mp-24389,C1c1
Co3(BPO7),-2.08,mp-562300,C1m1
RbLi(CrO4),-2.09,mp-18741,P31c
Li(ReO3),-2.11,mp-8189,R3c
Li4(CO4),-2.12,mp-549389,C1m1
PbVO3,-2.12,mp-20032,P4mm
Pb(VO3),-2.12,mp-20032,P4mm
K6BiH3(Cl2F)4,-2.12,mp-696998,P6₃mc
Li4(CO4),-2.12,mp-1180596,C1m1
Au3F7(SbF5)3,-2.12,mp-554764,P1c1
Na2(GeO3),-2.14,mp-5784,Cmc2_1
Cu6La4(MoO4)9,-2.16,mp-558757,R3c
CaZnOS,-2.17,mp-7204,P6₃mc
Cs2PrO3,-2.18,mp-7646,Cmc2_1
Cs3Li2Cl5,-2.19,mp-570756,C1m1
Bi2ZnTiO6,-2.2,mp-1084840,C1m1
Ba5(OsO5)3(NO3),-2.2,mp-628618,P6₃cm
Mn13Sb(Si2O24),-2.22,mp-557740,P31m
Ir(PO3)3,-2.23,mp-554749,C1c1
KNa(SO4),-2.23,mp-558632,P3m1
(SbV)O4,-2.24,mp-29146,I4₁md
ScZnMo3O8,-2.24,mp-18282,P6₃mc
BaBi2O2Br2,-2.25,mp-1227974,I4mm
SrNi2(VO4)2,-2.26,mp-541734,I4₁cd
Sr(Co2V2O8),-2.26,mp-1195702,I4₁cd
LiNa(SO4),-2.26,mp-6783,P31c
(PbF2)4(PbI2),-2.26,mp-540938,R3m
FeCo(PO4)F,-2.27,mp-572292,C1c1
(Na(H2O))2(B5O8(OH)),-2.28,mp-720593,Pna2_1
SrCu2(BO3)2,-2.29,mp-6602,I4̅2m
BaB2O4,-3.105,mp-5730,R3c
LiB3O5,-2.819,mp-3660,Pna2_1
CsLiB6O10,-2.85,mp-5990,I-42d
CsB3O5,-2.82,mp-3977,P2_12_12_1
KBe2BO3F2,-3.186,mp-6870,R32
Sr2Be2B2O7,-3.179,mp-556498,P-6c2
RbBe2BO3F2,-3.185,mp-7323,R32
CsBe2BO3F2,-3.179,mp-553342,R32
KSrCO3F,-2.796,mp-865427,P-6m2
NaCaBe2B2O6F,-3.102,mp-1193627,Cc
NaSr3Be3B3O9F4,-3.299,mp-1192032,R3m
BaAlBO3F2,-3.556,mp-558491,P-6
K3Ba3Li2Al4B6O20F ,-3.083,mp-1195057,P-62c
BaZnBO3F,-2.943,mp-1077866,P-6
KCaCO3F,-2.806,mp-6867,P-6m2
Li2Ga2GeS6,-1.163,mp-554782,Fdd2
LiGaGe2Se6,-0.509,mp-1222398,Cc
Li2In2GeSe6,-0.688,mp-1191200,Cc
Li2In2SiSe6,-0.749,mp-1191817,Cc
KZn2BO3Cl2,-2.215,mp-1078186,R32
BiB2O4F,-2.63,mp-558753,P3_2
LiB6O9F,-2.876,mp-558105,Pna2_1
Li2B6O9F2,-2.91,mp-1200209,Cc
Li2B3O4F3,-3.016,mp-1196457,P2_12_12_1
NaBe2BO3F2,-3.133,mp-556865,C2
Ba3Mg3(BO3)3F3,-3.32,mp-1198065,Pna2_1
(NH4)2PO3F,-1.429,mp-24157,Pna2_1
(C(NH2)3)2PO3F,-1.014,mp-698449,Cm
Na3NbOF6,-3.199,mp-561259,P2_12_12_1
K3Ti(O2)2F3,-2.443,mp-6305,Cmcm
K2TiOF4,-3.436,mp-556623,Pna2_1
Ba2TiOF6,-4.009,mp-561256,Cc
Li2Ta2O3F6,-3.494,mp-561011,P3_121
Ba2MoO3F4,-3.317,mp-1214599,Cc
Ba2WO3F4 ,-3.363,mp-19234,Cc
Pb5W3O9F10,-2.324,mp-1221334,P1
RbSbSO4F2,-2.376,mp-554732,Pna2_1
CsSbSO4F2,-2.377,mp-1213195,Pna2_1
LiGaS2,-1.358,mp-3647,Pna2_1
LiGaSe2,-0.911,mp-11582,Pna2_1
LiGaTe2,-0.628,mp-5048,I-42d
LiInTe2,-0.628,mp-20782,I-42d
LiInS2,-1.265,mp-1188392,Pna2_1
Li2ZrTeO6,-2.506,mp-6782,R3
La3SnGa5O14,-2.842,mp-6788,P321
K2Sr(PO3)4,-2.85,mp-558990,I-4
KLa(PO3)4,-2.942,mp-540962,P2_1
CsLa(PO3)4,-2.951,mp-559234,P2_1
KBa2(PO3)5,-2.928,mp-560320,Pc
Ba3P3O10Cl,-3.148,mp-1194911,Pca2_1
Ba3P3O10Br,-3.078,mp-1194785,P2_12_12_1
LiPbPO4,-2.511,mp-22694,Pna2_1
Rb3Al2(PO4)3,-2.942,mp-560459,Cmc2_1
K3Al2(PO4)3,-2.95,mp-560629,Pna2_1
LiK3P2O7,-2.685,mp-1019794,C222_1
LiNa3P2O7,-2.655,mp-1020164,C222_1
LiCsP2O6,-2.716,mp-560667,Fdd2
BaNa(PO3)3,-2.882,mp-13755,P2_12_12_1
Rb2Na(NO3)3,-1.486,mp-1020630,Pmc2_1
Pb2(SeO3)(NO3)2,-1.277,mp-1192446,Pmn2_1
BaMnSnS4,-1.045,mp-540651,Fdd2
BaZnSnS4,-1.425,mp-13593,Fdd2
BaCdGeS4,-1.374,mp-13831,Fdd2
BaCdSnS4,-1.383,mp-12306,Fdd2
BaGa2SiS6,-1.428,mp-1227993,P1
BaGa2GeS6,-1.323,mp-1227983,P1
BaGa2SiSe6,-0.887,mp-1227978,P1
BaGa2GeSe6,-0.829,mp-1227970,P1
SrCu2GeS4,-1.125,mp-18685,P3_221
SrCu2SnS4,-1.108,mp-16988,P3_121
SrCu2GeSe4,-0.694,mp-16179,Ama2
BaCu2GeS4,-1.139,mp-17947,P3_121
BaCu2GeSe4,-0.717,mp-17252,P3_121
BaCu2SnSe4,-0.742,mp-12364,Ama2
BaAg2GeS4,-1.102,mp-7394,I-42m
BaAg2SnS4,-1.096,mp-555166,I222
BaAg2GeSe4,-0.716,mp-569790,I222
BaAg2SnSe4,-0.736,mp-569114,I222
EuLi2GeS4,-1.555,mp-629443,I-42m
PbLi2GeS4,-1.143,mp-19896,I-42m
K2Bi2(SO4)2Cl4,-2.009,mp-23645,P2_12_12_1
Sb6O7(SO4)2,-1.881,mp-27229,Ccc2
Sn2P2S6,-0.75,mp-13923,Pc
LiZnPS4,-1.039,mp-11175,I-4
AgZnPS4,-0.739,mp-558807,Pna2_1
Zn3P2S8,-0.866,mp-30311,P-4n2
InPS4,-0.802,mp-20790,I-4
K2P2Se6,-0.519,mp-571452,P3_121
Rb2P2Se6,-0.522,mp-571464,P3_121
KZrPSe6,-0.601,mp-639149,Pmc2_1
KPSe6,-0.331,mp-18625,Pca2_1
RbPSe6,-0.341,mp-17945,Pca2_1
KNb2PSe10,-0.571,mp-1195772,Pc
RbNb2PSe10,-0.58,mp-1192452,Pc
CsNb2PSe10,-0.591,mp-1195822,Pc
K4GeP4Se12,-0.527,mp-1195433,Pca2_1
Rb4GeP4Se12,-0.537,mp-1195251,Pca2_1
Cs4GeP4Se12,-0.558,mp-1195417,Pca2_1
Cs2Ba3(P2O7)2,-3.054,mp-1019605,P2_12_12_1
Li3AlSiO5,-2.983,mp-1020023,Pna2_1
Li2SiO3,-2.891,mp-5012,Ccm2_1
Na(GeP)3,-0.174,mp-1104707,Pmc2_1
Ca2CdP2,-0.907,mp-1078908,Pmc2_1
BaGe2P2,-0.506,mp-27809,P4_2mc
BaGe2As2,-0.504,mp-27810,P4_2mc
LaSiP3,-0.723,mp-1232374,Pna2_1
LaSi2P6,-0.465,mp-29186,Cmc2_1
MgSiAs2,-0.312,mp-1016197,I-42d
MnSiP2,-0.101,mp-1207203,I-42d
RuSi4P4,-0.359,mp-14983,P1
La4InSbS9,-2.006,mp-1196663,P4_12_12
Eu2Ga2GeS7 ,-0.713,mp-1192354,P-42_1m
Dy3GaS6,-2.13,mp-1189242,Cmc2_1
Ba6Sn6Se13,-1.227,mp-1196224,P2_12_12_1
BaHgS2,-1.487,mp-28007,Pmc2_1
BaGa4S7 ,-1.353,mp-4309,Pmn2_1
BaGa4Se7,-0.871,mp-1191072,Pc
BaAl4Se7 ,-1.095,mp-1191234,Pc
Ba5In4Te4S7,-1.51,mp-1105201,Imm2
Ba2BiInS5 ,-1.611,mp-864638,Cmc2_1
Ba2BiInSe5,-1.209,mp-1105202,Cmc2_1
Na2ZnGe2S6,-1.073,mp-1190399,Cc
Li2CdGeS4,-1.187,mp-1189383,Pmn2_1
KCd4Ga5S12,-1.101,mp-1223535,P1
Li2In2SiS6,-1.221,mp-1191903,Cc
Na2In2SiS6,-1.206,mp-1190138,Cc
Na4MgSi2Se6,-0.959,mp-1103351,C2
LiAsS2,-0.939,mp-555874,Cc
Rb3Ta2AsS11,-1.27,mp-1209358,Cc
SnGa2GeS6,-0.86,mp-1194838,Fdd2
CdCu2SnS4,-0.745,mp-1078292,I-42m
NaBa4Ge3S10Cl,-1.689,mp-1201802,P6_3
SbF3 ,-2.709,mp-1880,Ama2
NaSb3F10,-2.776,mp-27573,P6_3
Cs2Hg3I8,-0.717,mp-540574,Cm
HgBr2,-0.431,mp-571558,P3
Rb2CdBr2I2,-1.284,mp-1103709,Ama2
Zn(IO3)2,-1.067,mp-23360,P2_1
NaI3O8,-1.029,mp-559065,P-4
RbIO3,-1.382,mp-27193,R3m
BPO4,-2.775,mp-3589,I-4
LiBO2,-2.738,mp-14232,I-42d
SrB4O7,-3.026,mp-5540,Pmn2_1
BHO2,-2.299,mp-721851,P-43n
B2S2O9,-2.202,mp-1019509,C2
LiB(SO4)2,-2.242,mp-1020106,Pc
CaB4O7,-3.004,mp-11000,Pmn2_1
Li3B5(HO5)2,-2.599,mp-707105,P4_12_12
Li3B5(HO5)2,-2.6,mp-1199091,P4_32_12
BPH4NO4F,-1.982,mp-1195775,P2_13
B(HO)3,-1.925,mp-759069,P3_2
YB6(HO4)3,-2.728,mp-1178731,R3c
Li2B4O7,-2.813,mp-4779,I4_1cd
Cs2Sr2Li3B3(PO4)6,-2.917,mp-1019609,P2_13
NaLiB4O7,-2.79,mp-553926,Fdd2
Mg3B7ClO13,-2.918,mp-23617,F-43c
CaB3HO6,-2.848,mp-1194867,Pna2_1
NaB5(H2O5)2,-2.406,mp-721294,P2_1/c
RbB5(H2O3)4,-1.138,mp-721194,Aea2
LiB(S2O7)2,-2.056,mp-1020060,P2_12_12_1
BaBPO5,-3.127,mp-15840,P3_121
NaB(HO)4,-1.884,mp-707419,P2_1/c
SrLi(B3O5)3,-2.938,mp-18495,R3c
B5H12NO12,-1.913,mp-703444,Aea2
Mg3B7ClO13,-2.916,mp-23087,Pca2_1
Al4(B2O5)3,-3.093,mp-31408,R3
Sr3B6O11F2,-3.239,mp-1202821,P2_1
BaBPO5,-3.127,mp-6040,P3_221
NaSiBO4,-2.925,mp-556740,P6_3
CsB9O14,-2.839,mp-680683,P222_1
YBe2B5O11,-3.102,mp-1020740,Pna2_1
BaLi(B3O5)3,-2.952,mp-17672,R3c
Ba2B6H4O13,-2.663,mp-1199077,P2_1
SrBPO5,-3.131,mp-6486,P3_121
CaB8H4O15,-2.633,mp-23701,P2_1
Ca(BO2)2,-3.121,mp-556826,Pna2_1
MgB2H6O7,-2.057,mp-706910,P4_2/n
Sr2B5ClO9,-3.079,mp-557330,Pnn2
Na2B4O7,-2.735,mp-1020142,P3_221
NaBe(BO2)3,-2.852,mp-1020624,Pna2_1
KSi2BO6,-3.064,mp-1019889,P2_12_12_1
Ca2B5BrO9,-2.985,mp-554056,Pnn2
Na5B(SO4)4,-2.291,mp-1020599,P2_12_12_1
Ca2SiB2O7,-3.258,mp-752851,P-42_1m
Ba3B6O11F2,-3.218,mp-1195844,P2_1
SrB4O7,-3.024,mp-1020670,P3
Na5B(SO4)4,-2.292,mp-1197581,Pca2_1
BaNa(B3O5)3,-2.944,mp-17864,R3c
RbB3O5,-2.814,mp-29756,P2_12_12_1
Ba2B5ClO9,-3.064,mp-555742,Pnn2
BAsO4,-2.143,mp-3277,I-4
Mg5B3O9F,-3.094,mp-560026,Pnma
Na3B6ClO10,-2.723,mp-1195615,P2_12_12_1
K3B6ClO10,-2.766,mp-1189091,R3m
CaBPO5,-3.097,mp-6667,P3_121
K3B6BrO10,-2.72,mp-23612,R3m
RbNa2B6ClO10,-2.738,mp-1194580,P2_12_12_1
KLiB4O7,-2.809,mp-6648,P2_12_12_1
Na5B2P3O13,-2.698,mp-557836,P2_1
K5B(SO4)4,-2.347,mp-1019797,P4_1
Cs2Li3B3P6(PbO12)2,-2.698,mp-1196318,P2_13
LiGeBO4,-2.504,mp-8873,I-4
Ca2B2O5,-3.253,mp-1019560,P2_12_12_1
KBe2B3O7,-2.902,mp-1019809,Pmn2_1
RbLiB4O7,-2.805,mp-6787,P2_12_12_1
CsGeB3O7,-2.657,mp-558804,Pna2_1
Na2B5H5O11,-2.321,mp-720593,Pna2_1
RbGeB3O7,-2.652,mp-1199892,Pna2_1
Rb2GaB5(H4O7)2,-2.191,mp-1201112,C222_1
Al5BO9,-3.376,mp-3281,Cmc2_1
BAsH4NO4F,-1.673,mp-1191775,Cc
RbBe2B3O7,-2.899,mp-1020621,Pmn2_1
Sr6B(PO4)5,-3.26,mp-6044,I-4c2
K6Al4Si6BH4ClO24,-2.889,mp-1199737,P-42_1c
CaAlBO4,-3.332,mp-559759,Ccc2
CsLi(B3O5)2,-2.853,mp-1200805,P222_1
Ba3B6H2O13,-2.904,mp-1199009,Pc
Sr4B14O25,-3.055,mp-559330,Cmc2_1
Cs2Li3(BO2)5,-2.7,mp-966802,C222_1
Ba3Sr4B3O9F5,-3.52,mp-1182538,P6_3mc
Na3B3(HO2)4,-2.224,mp-1203588,Cc
K2Al2B2O7,-3.003,mp-560217,P321
BAsO4,-2.096,mp-11654,P3_121
Ca5B3O9F,-3.39,mp-6632,Cm
Cs3Li4(BO2)7,-2.708,mp-1019615,P3_121
Na3B5(HO5)2,-2.531,mp-722369,Pca2_1
Ba4NaAl2B8(ClO6)3,-3.089,mp-1204585,P4_2nm
RbMgBO3,-2.774,mp-1020633,P2_13
CsNa2Be6(BO3)5,-2.895,mp-866613,C2
AlB5H16(NO7)2,-1.831,mp-1200079,C222_1
KMgBO3,-2.795,mp-1191101,P2_13
B4PbO7,-2.656,mp-9747,Pmn2_1
Rb5Li6(BO2)11,-2.698,mp-1020620,C2
BaBAsO5,-2.637,mp-9784,P3_121
BPPbO5,-2.556,mp-21266,P3_121
KBS4(ClO3)4,-1.868,mp-560423,Cc
Rb2Al2B2O7,-2.988,mp-559284,P2_1/c
Rb2GeB4O9,-2.656,mp-1020707,P2_1
Sr5B3ClO9,-3.23,mp-555203,C222_1
K2B5H5O11,-2.336,mp-707775,Pna2_1
B2Se2O7,-1.914,mp-558521,P2_12_12_1
TlB3O5,-2.594,mp-29155,P2_12_12_1
Ba3Y(BO3)3,-3.304,mp-6310,P6_3cm
Rb3Y2(BO3)3,-3.031,mp-556206,Pna2_1
CsBa(BO2)3,-2.923,mp-556936,P321
SrAl2B2O7,-3.273,mp-15939,R32
K2SrB8(HO)28,-1.944,mp-1198667,Pna2_1
Rb4Ge3B6O17,-2.557,mp-1020896,Cc
BaB8O13,-2.953,mp-27794,P4_122
K2Ga2B2O7,-2.537,mp-561525,P321
Ba5B3BrO9,-3.104,mp-1199246,C222_1
Ba5B3ClO9,-3.172,mp-1201345,C222_1
Ba3Sc(BO3)3,-3.291,mp-14972,P6_3cm
Na4Ga3Ge3B(HO3)4,-1.856,mp-1203580,P-43n
BAsPbO5,-2.083,mp-22430,P3_1
Ba5B4O11,-3.159,mp-3974,P2_12_12_1
Ca10Ge16(B2O17)3,-2.642,mp-1019569,Pba2
K2B4H8O11,-2.117,mp-721901,P2_12_12_1
Ba4NaAl2B8(BrO6)3,-2.996,mp-1197875,P4_2nm
B5Pb2BrO9,-2.513,mp-23623,Pnn2
Sr5B3BrO9,-3.157,mp-560233,C222_1
CaGaBO4,-2.919,mp-557855,Ccc2
Ba3B3Pb2ClO9,-2.772,mp-1195317,C222_1
Ba3B3Pb2BrO9,-2.714,mp-1194742,C222_1
K2LiBO3,-2.356,mp-557632,C2
SnB4O7,-2.625,mp-13252,Pmn2_1
Ba4NaGa2B8(BrO6)3,-2.834,mp-1195423,P4_2nm
B5Pb2IO9,-2.469,mp-1200548,Pnn2
SrGaBO4,-2.91,mp-1197916,P2_12_12_1